# vtk DataFile Version 3.0
surface temperature (time-index=1) [K]
ASCII
DATASET UNSTRUCTURED_GRID
POINTS 10242 float
997548.5 3680269 5104221.5
1230975.125 3608903.25 5104221.5
1163408.125 3805336.5 4975787
1064765.25 3482690 5227782
1394143.875 3731051 4972744
930579.625 3872776.75 4972744
762197.8125 3744710.75 5097916.5
828818.9375 3551055 5224521.5
591125.5625 3612421.75 5214742.5
1298602.75 3407427.75 5224521.5
1462125.125 3530721.5 5097916.5
1529975.375 3325386.75 5214742.5
1326143.625 3926069.25 4839409
1096007.125 3996429.25 4839409
1258227.5 4115476.75 4698114
895768.75 3352598.75 5343242.5
962942.0625 3149641.5 5453903
1132123.5 3280338 5343242.5
724249.0625 3218813.25 5450437
1199507.875 3073512 5450437
657482.6875 3417880.75 5336512.5
791321.5 3015519.5 5556349
1030221.8125 2942480.25 5556349
858581.8125 2808294.5 5654103
1366176.875 3201211.25 5336512.5
1622440.5 3650034 4963617.5
1779306.375 3765184.75 4821826.5
1554023.625 3848948.25 4833546
1847962.625 3562416.75 4948412
1710381.875 3962411.25 4686838
1690653.125 3445849 5085310
2001666 3674915.75 4804257
1932499.625 3875993 4672759.5
2151550.25 3783169.5 4653065.5
1485513 4042280 4695293.5
863960.6875 4059921.75 4833546
630352.6875 4116455 4821826.5
696008.9375 3933272.5 4963617.5
797781.4375 4241421 4686838
460047.75 3986745 4948412
1028868.25 4181890.5 4695293.5
565312.9375 4293984 4672759.5
395530.46875 4165960.75 4804257
331805.625 4339521.5 4653065.5
525279.3125 3802139.5 5085310
-65173.55859375 3571166 5275896.5
-644.8833618164062 3383666.75 5398459
176626.34375 3527181.25 5302863
111963.1875 3713912.5 5175604
-243852.625 3424367.5 5367197
242052.046875 3335876.75 5422720.5
-128767.7734375 3754067.75 5146159
-307367.5625 3608181.5 5242052
-369779.125 3787367 5109958
-179341.703125 3236218.5 5485188
64715.65234375 3191865.5 5513652.5
-113934.9765625 3044039.5 5595838
417641.1875 3476092.5 5323055
352050.71875 3666716.25 5198443
287150.53125 3852497 5066396
223046.203125 4033152.5 4927118
48167.9765625 3895783.25 5041142
-14651.9169921875 4072517.75 4899688
159836.390625 4208412.5 4780823.5
-191318.578125 3932090 5009453.5
-487148.3125 3458212.25 5328791
-667509.0625 3304109 5406464
-423570.6875 3273514.75 5449518
-730113.6875 3485635.75 5282976
-603703.25 3118441 5522991
-549569.625 3638528 5201119.5
-910704.0625 3328583.75 5355717.5
-847718 3145641.25 5475297
-1090513.125 3167080.25 5419681
-358942.875 3084741.75 5563100.5
308141.4375 3140297.25 5534992.5
550487.6875 3081493.75 5549227
483819.59375 3280918 5440041.5
374799.625 2940747.75 5639511
130812.484375 2996067.75 5621301
617544.3125 2878121.75 5650452.5
1892657.125 2804826.25 5398459
2051002 2924186.25 5275896.5
1825944.875 3022934 5302863
1664728.375 2900921 5422720.5
2117045 2702568.75 5367197
1983971.875 3141582 5175604
1731216.875 2682365 5513652.5
1958351.375 2582660 5485188
1796661.75 2459911.5 5595838
2272488.75 2819440.25 5242052
2206001.5 3040257.25 5146159
2424429.5 2933091.75 5109958
1758538.5 3236710 5198443
1597566 3115353.25 5323055
1433561.5 2990552.75 5440041.5
1266774.5 2862503 5549227
1500571.125 2775735 5534992.5
1333722.375 2647575.75 5639511
1097457.75 2731397.5 5650452.5
1566931.375 2557002.25 5621301
2181682.25 2477009 5449518
2401024.5 2365964.25 5406464
2337672 2594578 5328791
2244302.75 2247718.25 5522991
2554434.5 2481448.75 5282976
2022542.875 2356648.5 5563100.5
2461810.25 2133816.75 5475297
2616328.25 2250261.75 5355717.5
2675085.25 2015821.25 5419681
2490253 2709161 5201119.5
2138561.25 3256685.75 5041142
2070396.5 3468360.75 4927118
1916230.375 3354437.25 5066396
2289470 3368077 4899688
2357407 3152866.25 5009453.5
2220804.25 3578311.5 4780823.5
1502991 4517657 4233716
1280205.875 4585769.5 4233716
1348572.75 4410983 4395127
1572156 4338958 4392531
1433748.625 4689580.5 4067524.75
1122938.125 4476297.5 4392531
1723564.25 4442926 4228746.5
1653688.625 4618708.5 4065145.25
1871253.125 4541309.5 4058014.25
1211778.875 4753813.5 4065145.25
1055553 4647157.5 4228746.5
988128.8125 4811307.5 4058014.25
1190479.5 4298980.5 4549075
1417007.25 4229724 4549075
1641300.625 4153774 4543661
1863020.75 4071244.75 4532844.5
1793346.25 4260332.5 4384750.5
2011808.75 4175226.25 4371804
2081839.625 3982265.25 4516643
1941585.625 4361690.5 4218822
1583597.75 4787386.5 3894317.25
1512970.125 4948702.5 3716695.5
1364210.5 4854460 3894317.25
1729983.25 4878746.5 3714505.25
1293939.25 5012058.5 3714505.25
1800786.875 4713756.5 3889758.75
1658401.75 5036048 3532772.5
1441245 5102439.5 3532772.5
1585362.5 5185487 3345132.25
1142979.25 4914868.5 3889758.75
895596.1875 4534802 4384750.5
732097 4417003 4532844.5
962061 4361438.5 4543661
666891.9375 4586408.5 4371804
829379 4701726.5 4218822
500931.1875 4465597.5 4516643
468488.71875 1967686.625 6041629.5
536197.3125 1753822.25 6101570
711921.625 1893261.75 6041629.5
291430.125 1823909.75 6097621
778310.875 1675055.375 6097621
644679.5 2108651.75 5977502.5
400496.3125 2179046.5 5973602
223013.546875 2033792.625 6033781
154700.421875 2241397.5 5961943
359659.15625 1611864 6153462.5
603171.9375 1537414.625 6153462.5
427296.1875 1397622.875 6201341
952395.8125 1810798.125 6033781
886480.8125 2030466.125 5973602
1125121.125 1944710.125 5961943
45100.296875 1884938.5 6085847
-132624.0625 1731531.875 6129989
113952.6484375 1676741.125 6145576.5
-201697.34375 1936506.25 6066450.5
-63367.44921875 1525155.875 6185664.5
-23593.421875 2091253.75 6018194
-378740.09375 1775831.75 6107007
-309284.15625 1572039.375 6166489.5
-553468.5 1607389.25 6140238.5
182708.734375 1466806.625 6197391
843150.75 1453802.875 6145576.5
1078210.625 1361342.5 6129989
1016654.4375 1587904.625 6085847
905390.375 1228976.875 6185664.5
1250095.25 1492648.75 6066450.5
668755.4375 1318207.25 6197391
1135481.5 1130330.25 6166489.5
1307022.25 1260442.375 6107007
1357686.75 1023090.375 6140238.5
1188974 1720534.625 6018194
819620.875 2247093.75 5905197
752305.4375 2460680.25 5828520.5
577062.375 2321251.25 5905197
992974.8125 2383104 5824721
509401.40625 2530947.25 5824721
1059552.625 2165523.75 5897492
925874.1875 2597412.5 5743584.5
684870.1875 2671094.75 5743584.5
332536.5625 2387795 5897492
-226935.75 2696262 5768122
-406144.8125 2539894.75 5828940
-159754.234375 2497227 5859257
19187.486328125 2648864.5 5794455
-472915.53125 2735988.25 5734394.5
-338602.25 2341038.25 5915864
-47727.03125 2848147.25 5698977
-293365.34375 2892213.5 5669356
-651782.875 2574734.5 5791241.5
-584531 2378265.25 5881729
-829022 2407654.75 5840246.5
-91930.6484375 2295448.5 5942644.5
86704.890625 2446512.25 5882144
264834.46875 2593729 5813346
441926.5 2737533.5 5736128.5
197552.328125 2796585.5 5721245
-538803.6875 2928954.75 5632359.5
-783493.6875 2958789.25 5587867.5
-718143.625 2768368 5693239
-962065.8125 2794042 5644494.5
-1026925.4375 2982408 5535632.5
-896055.4375 2602334 5746086
-516514.59375 2179353.25 5964578
-447869.03125 1978404.625 6039692.5
-270408.1875 2139788 5995060
-692433.5625 2010973.125 6005754
-761100.5 2210396.25 5926840
-623170.9375 1809819.75 6076904.5
143081.8125 898975.4375 6305864.5
384080.46875 825294.75 6305864.5
318419.78125 1041504.1875 6277454.5
74796.9921875 1108906.375 6273539
210119.953125 687271.375 6330566
558083.0625 961151 6273539
-100673.2890625 956867.5 6298160.5
-31705.310546875 751270.5625 6326701
-273588.21875 794557.875 6315567
446390.03125 605102.125 6326701
618535.4375 736983.3125 6298160.5
671126.0625 505729.75 6315567
493751.75 1180928 6241328
251027.8125 1255136.125 6241328
5860.45849609375 1317587.875 6233497
-239667.90625 1367408.75 6218143.5
-170067.765625 1162271.375 6262009.5
-413395.59375 1200588 6243416.5
-483487.71875 1404150.25 6195737.5
-343366.8125 997209.5625 6283329.5
36509.8828125 545220.1875 6347752.5
103234.9609375 337666.34375 6361437
274615.1875 472424.09375 6347752.5
-135597.921875 393804.96875 6357601
332628.71875 250653.71875 6357601
-204263.046875 593223 6340262
-67693.3984375 196595.921875 6367835.5
166055.421875 125131.7265625 6367835.5
-2.77003212034721e-11 -1.569375462917577e-10 6371229
501067.8125 377581.6875 6340262
790926.4375 868465.9375 6262009.5
963339 999612.6875 6218143.5
731927.25 1095607 6233497
1014080.75 764164.625 6243416.5
842296.5 634715.9375 6283329.5
1186020.375 893730.4375 6195737.5
1757000.5 1878555 5828940
1695868.875 2108401.75 5768122
1528873.875 1980961.5 5859257
1589806 1751464.75 5915864
1922010 2003786.125 5734394.5
1465319 2206737.75 5794455
1814507.25 1644805.625 5881729
1980125.75 1770079.375 5791241.5
2033633.75 1532453 5840246.5
1860516.125 2233706 5669356
1632231.25 2334532.5 5698977
1296190.75 2076735.375 5882144
1359812.5 1851606 5942644.5
1420732.75 1622754.25 5995060
1477610.125 1389726.625 6039692.5
1646888.875 1517934.375 5964578
1698575.375 1279968.375 6005754
1528670.5 1151935.875 6076904.5
1867018.875 1406899.625 5926840
2143419.75 1893500.125 5693239
2304079.5 2014823.375 5587867.5
2084539.125 2126918.25 5632359.5
2359997.25 1778385.375 5644494.5
2198070.25 1656364.75 5746086
2519101 1898278.875 5535632.5
1400052.375 2428944.25 5721245
1164435.625 2516640.25 5736128.5
1230837.125 2298392.25 5813346
3053142.75 3658219.5 4229457
3179285.75 3746392.5 4055767
2982557.75 3863156.5 4095476.75
3249986.75 3538203.5 4184646
3108755.75 3948095.25 3916725.75
2852399.75 3773101.25 4268499
2922661.25 3565434 4397532.5
3123475.25 3447332.75 4353430.5
2992399 3352224 4516713.5
3372000 3624589 4010552.25
3301335.75 3829593.25 3876590.75
3489737.25 3706167 3831268.75
2911979.75 4061380.5 3951976.75
2781795.25 3974560.5 4130017.25
2711109.75 4169185.75 3982503.25
3320627 3324476.25 4302772.5
3514479.5 3197485.75 4244652.5
3443110 3413486.25 4133481
3391074 3106232.5 4409591.5
3632917 3284642 4074996.75
3193399 3231314.75 4466919
3585946.75 2977863.5 4343486.5
3705655 3067243.5 4177642.75
3778699.25 2847454.25 4266848.5
3560889 3498133.25 3959254
3231492 4027384.75 3732317
3163036.5 4216913.5 3578463.25
3038785.25 4142423.25 3768112.75
3351627.5 4100232 3542209.75
[...]
CELL_DATA 20480
SCALARS ts float 1
LOOKUP_TABLE default
262.0060424804688
257.5740966796875
262.0443115234375
266.1997985839844
261.2002563476562
264.985107421875
261.2145080566406
255.7246704101562
252.0512237548828
251.4121246337891
246.6880645751953
257.3861083984375
271.6694030761719
268.3972778320312
273.1583251953125
271.2746276855469
238.7776489257812
236.6858978271484
247.3236999511719
239.9390563964844
245.3928375244141
249.7481384277344
255.6356658935547
239.7765350341797
249.5987854003906
239.8354034423828
252.5962677001953
250.6550750732422
241.1871795654297
243.3517456054688
244.0798034667969
247.6305541992188
266.3050842285156
262.9882507324219
272.195556640625
264.8868408203125
252.8562927246094
257.4159240722656
245.8758392333984
255.514404296875
273.5806274414062
265.4178161621094
273.1818237304688
273.2522583007812
273.1759643554688
273.1773376464844
273.1577758789062
270.6481018066406
273.1882019042969
273.1534729003906
273.2245788574219
273.21337890625
273.1495361328125
273.235107421875
273.14892578125
273.1489562988281
273.5216979980469
273.1517028808594
273.748046875
273.3810424804688
269.2236938476562
273.2570495605469
263.7225952148438
269.0396423339844
256.6934814453125
261.8920593261719
258.5238342285156
252.761962890625
267.2590637207031
267.1695251464844
269.3875732421875
263.434814453125
243.7070007324219
254.4620819091797
239.9644012451172
242.4259643554688
256.7864990234375
253.3137512207031
259.2400512695312
262.29345703125
273.2236938476562
272.5448303222656
268.2993774414062
272.6751403808594
268.1670532226562
268.051513671875
263.4282836914062
273.2342224121094
269.1820373535156
271.5063781738281
273.2815551757812
266.0829772949219
272.6146850585938
270.3818359375
272.4804992675781
271.1452026367188
262.1768493652344
266.6218872070312
259.2653503417969
261.590576171875
268.1174621582031
264.7964172363281
268.6449279785156
269.6255493164062
265.2501220703125
268.3438110351562
266.7247009277344
261.5185852050781
250.3335723876953
253.4077301025391
242.3355255126953
253.9202117919922
229.5805053710938
231.7659301757812
230.98046875
233.3786926269531
229.5417785644531
232.0351257324219
233.0074768066406
235.2232055664062
248.5876312255859
248.1910095214844
252.1544036865234
240.9727325439453
244.2489776611328
234.2398681640625
252.4683532714844
240.9536743164062
253.8423309326172
253.9872741699219
255.7766571044922
243.0658111572266
257.9413146972656
255.7320251464844
257.4101867675781
256.17529296875
244.2371063232422
251.1268463134766
247.8909912109375
241.3913421630859
251.141357421875
249.3181915283203
239.5514678955078
253.8538055419922
255.5919494628906
254.7226409912109
256.0057983398438
255.0347595214844
251.5423431396484
253.5654449462891
241.7666473388672
252.2804565429688
254.3881683349609
254.6316986083984
254.7382354736328
255.606689453125
255.0781097412109
255.8161163330078
256.7835083007812
255.0369110107422
252.0760498046875
253.467041015625
253.3064270019531
253.4070587158203
257.8018798828125
255.9003143310547
257.8974304199219
257.0087280273438
250.7398986816406
251.9262084960938
255.4775390625
255.5566253662109
253.6727142333984
256.7822875976562
254.0184936523438
253.0831756591797
252.1564025878906
256.7598876953125
253.8424072265625
247.0113220214844
250.6092071533203
245.6858673095703
250.7864532470703
257.2783203125
263.718017578125
261.561767578125
271.1828002929688
261.1805725097656
244.8665618896484
250.7121429443359
243.2062072753906
243.5336303710938
273.0037231445312
273.2172546386719
273.1693420410156
273.1722106933594
273.281494140625
273.16064453125
273.1988830566406
273.1654357910156
261.6970520019531
260.0289916992188
262.6820678710938
266.020263671875
273.5240783691406
275.1958312988281
274.0650634765625
273.1762390136719
278.0077514648438
274.4405517578125
278.3478698730469
277.3078002929688
273.1510314941406
273.1925048828125
273.1545715332031
273.1964111328125
277.7660827636719
273.5589904785156
275.4467163085938
278.6120910644531
279.1855163574219
280.1764221191406
282.0582275390625
276.2023010253906
254.5745391845703
255.4093933105469
257.6678161621094
256.6426086425781
272.545654296875
254.1908569335938
271.1305236816406
273.1548156738281
273.1947021484375
273.1549682617188
283.4237976074219
261.8136291503906
258.1247253417969
257.2195739746094
272.740234375
250.8782196044922
273.1540832519531
273.1689147949219
273.6681518554688
273.5162048339844
262.8677062988281
274.5415649414062
264.7536926269531
261.4371643066406
273.8304443359375
273.4188842773438
273.1492919921875
273.5136108398438
273.7772827148438
274.1557312011719
274.7099914550781
273.1953125
244.8255767822266
244.0675811767578
245.2437286376953
246.1703491210938
240.9996337890625
247.6504669189453
242.5001373291016
239.0413513183594
247.0441131591797
246.7731018066406
245.9772033691406
247.8842620849609
248.4539794921875
248.3757019042969
252.8251953125
245.7381744384766
214.2438507080078
216.8866424560547
213.8873138427734
225.2539520263672
228.9194793701172
225.7817840576172
235.2845306396484
220.5674133300781
243.5499572753906
234.5780639648438
245.8023376464844
229.8981018066406
242.3268127441406
241.9967803955078
242.2248687744141
244.216796875
249.3113555908203
248.5153503417969
252.4344329833984
248.6287689208984
247.8788452148438
248.3807373046875
246.7013397216797
247.1556396484375
269.6370544433594
248.0324401855469
260.6774597167969
274.8954467773438
248.8722686767578
244.412841796875
251.9286041259766
248.0199127197266
255.7917022705078
254.4441833496094
254.5371246337891
254.85498046875
253.1892852783203
248.2449188232422
248.1306762695312
254.4109344482422
254.439453125
255.2751922607422
254.4856567382812
254.17236328125
252.5229034423828
253.0644836425781
249.5024108886719
251.8475036621094
243.9299926757812
243.9487609863281
243.2245330810547
243.0968627929688
243.1696624755859
243.8326110839844
240.6329956054688
243.0035552978516
244.2922058105469
244.3912506103516
245.3907470703125
244.2757568359375
246.0622406005859
242.6741485595703
250.0813751220703
246.4281768798828
248.6378326416016
251.5739440917969
247.8268585205078
248.1320037841797
251.2755584716797
249.5914459228516
250.9228515625
252.3888702392578
252.7017059326172
252.6353912353516
252.3471374511719
248.6178741455078
245.4434814453125
245.7281188964844
235.8173217773438
245.4963073730469
250.1858825683594
253.3258666992188
253.7922515869141
245.9888153076172
245.3364105224609
244.3429870605469
241.536865234375
251.0707244873047
261.4530334472656
258.7990112304688
264.8014221191406
258.9964599609375
247.8533020019531
252.2450714111328
247.1366271972656
245.9703369140625
240.177978515625
241.7908325195312
239.7645721435547
239.9430999755859
245.0455932617188
243.9710388183594
245.1764221191406
243.0988922119141
243.9340209960938
242.6073760986328
241.2583160400391
240.8396759033203
240.7770690917969
230.9476013183594
244.0533142089844
239.9324798583984
247.988525390625
248.2972869873047
250.0187377929688
245.7960968017578
253.1602325439453
251.2020721435547
254.7020874023438
253.0631866455078
248.3269500732422
250.6537780761719
247.9560546875
247.0533905029297
241.9648742675781
242.8021392822266
240.5784454345703
245.8829193115234
248.3064575195312
246.1632080078125
247.9013824462891
249.5709838867188
243.4469299316406
245.7435913085938
241.0836029052734
243.5103607177734
242.8801727294922
242.2178649902344
240.7418212890625
250.0736694335938
253.5503387451172
252.8951568603516
253.7555389404297
245.7701873779297
256.0403137207031
258.3600463867188
254.9420928955078
254.6720886230469
257.2392883300781
254.9755249023438
256.4123229980469
258.6902770996094
257.9618225097656
259.2795715332031
258.6616516113281
255.7580261230469
251.5437927246094
252.8733367919922
249.6912841796875
252.3174896240234
245.9185943603516
247.2074127197266
247.0044250488281
244.8842010498047
247.8306121826172
246.1972961425781
247.088623046875
247.7729339599609
249.58837890625
250.0110015869141
251.7787170410156
248.3969573974609
244.6091461181641
247.6092224121094
245.7265472412109
243.1756744384766
259.1020202636719
259.2483520507812
259.38037109375
258.2357482910156
260.7730102539062
261.4259338378906
262.0049133300781
260.80078125
257.3190612792969
258.2850646972656
257.3787841796875
256.9191589355469
254.2552642822266
256.2553100585938
249.3123779296875
254.405517578125
274.6095886230469
274.5753173828125
275.0787353515625
271.5787963867188
251.1584014892578
256.6437683105469
252.7036437988281
254.0343322753906
274.3322448730469
274.8303527832031
271.9374389648438
274.8307800292969
274.7550964355469
275.3105163574219
262.6924438476562
266.1895446777344
260.9375915527344
260.0846557617188
259.5226440429688
260.4908447265625
261.5836181640625
260.9598999023438
260.2585754394531
261.2880554199219
255.9163665771484
259.01953125
253.4800720214844
256.2600402832031
259.1885681152344
259.9258728027344
258.3406372070312
259.0415649414062
254.7745513916016
255.6918487548828
256.2961730957031
253.7727508544922
255.2226409912109
256.0275268554688
256.6255493164062
255.6074676513672
255.0814056396484
255.8808135986328
254.923828125
255.208740234375
253.9040985107422
254.8357238769531
252.6802215576172
255.7390747070312
283.8354187011719
278.2495727539062
285.1515502929688
283.456787109375
280.6963195800781
281.8612670898438
279.6869506835938
278.0501708984375
277.8912048339844
282.1076965332031
273.1518249511719
285.6094970703125
281.3333435058594
285.7004089355469
282.8973388671875
283.1652221679688
273.185546875
273.1593017578125
273.2021179199219
275.0245971679688
275.4551391601562
273.2960205078125
280.6997375488281
274.6541137695312
284.9755554199219
276.987060546875
284.6979675292969
273.1526489257812
273.1733093261719
273.1659545898438
273.5609130859375
273.5276184082031
276.1137390136719
279.8314208984375
279.4191284179688
280.173828125
274.9902038574219
281.1348571777344
274.0594177246094
277.6299438476562
279.2523193359375
279.0569152832031
278.4119262695312
280.8797912597656
278.0487976074219
278.3146362304688
279.5077514648438
286.4890441894531
276.9009094238281
277.3828430175781
277.6704711914062
279.1640319824219
279.9702453613281
281.3578796386719
282.1484069824219
279.2920837402344
276.9517822265625
277.6292419433594
276.3348999023438
274.9705505371094
279.6366271972656
275.7774047851562
279.0635681152344
281.1271667480469
270.8831481933594
269.5634155273438
269.6118774414062
272.3951721191406
265.3958435058594
266.884521484375
261.5921936035156
267.1976013183594
272.3443603515625
270.8644714355469
272.9938049316406
273.1757202148438
273.7995910644531
274.413818359375
277.6255798339844
270.2980041503906
267.9549865722656
273.3769226074219
266.0246276855469
266.9452209472656
273.8917541503906
269.548095703125
274.9703979492188
273.7117004394531
272.7622375488281
273.2033996582031
273.1856384277344
265.9590759277344
262.8064575195312
261.7787170410156
258.7615051269531
265.239013671875
266.0719604492188
261.4951171875
266.7415161132812
267.6267700195312
261.7263793945312
265.8530578613281
259.2085876464844
258.4866638183594
258.9576110839844
257.6816711425781
255.0807495117188
264.4633178710938
270.5408325195312
269.0562133789062
271.96533203125
269.578125
279.7327880859375
281.4495239257812
277.6023864746094
277.927490234375
277.2100219726562
276.5102844238281
274.1943969726562
280.2742614746094
284.7452087402344
283.4828186035156
284.3602294921875
273.1520385742188
278.8749084472656
277.8798217773438
280.1457214355469
276.5850830078125
285.1889038085938
283.4869079589844
283.2380065917969
285.9298095703125
284.9198303222656
284.4503784179688
284.4994201660156
281.8144226074219
286.6770324707031
284.3608703613281
287.7098388671875
286.7338562011719
281.5461730957031
281.6659240722656
273.1869506835938
284.1714782714844
278.9758911132812
273.1689758300781
278.5066528320312
281.7499389648438
273.1526184082031
280.5782470703125
274.1360778808594
274.21533203125
273.1569519042969
273.153564453125
283.7787475585938
275.0863342285156
285.69580078125
283.3526611328125
285.5568542480469
285.1139221191406
282.4770812988281
282.3694763183594
284.1468811035156
281.7586364746094
281.1597595214844
280.7481079101562
281.8914489746094
281.3150634765625
283.2265319824219
281.5955810546875
282.7111511230469
284.2657775878906
287.7654113769531
286.1163330078125
288.8775634765625
284.6105041503906
281.2976379394531
286.6900024414062
273.1545715332031
283.3736877441406
288.1446838378906
287.182861328125
287.7041015625
290.7302856445312
275.3775634765625
280.875
277.6155395507812
276.2636108398438
274.4357299804688
275.3104858398438
273.1519165039062
276.3304748535156
284.9002685546875
284.0621337890625
277.39697265625
284.9685668945312
276.8783264160156
280.2879333496094
278.888427734375
273.2364196777344
283.4856872558594
281.1448059082031
274.6456909179688
284.57568359375
284.9823303222656
283.2713317871094
282.3535766601562
280.5039672851562
278.3535461425781
280.5514221191406
281.4160461425781
279.0006713867188
277.7528381347656
277.409912109375
276.2611083984375
279.0548095703125
276.5323791503906
279.6903076171875
279.0038452148438
282.123046875
281.8569030761719
279.4039306640625
283.6944274902344
280.3027954101562
263.3771057128906
274.3885192871094
267.2593994140625
267.69775390625
275.3397216796875
271.8749694824219
279.2703857421875
275.13427734375
282.3346557617188
277.4075927734375
285.8190612792969
273.8560485839844
279.5004577636719
273.155517578125
273.1617736816406
273.156494140625
280.0688781738281
280.5051574707031
278.29052734375
282.9415283203125
282.0370788574219
283.8133544921875
279.650634765625
280.9944763183594
277.8943481445312
278.3253784179688
278.4273376464844
277.4815063476562
281.2755737304688
280.0635986328125
282.9607849121094
282.3138427734375
269.8856201171875
259.8435363769531
269.521728515625
270.0874938964844
267.7170715332031
268.9162292480469
267.8564758300781
262.7393798828125
259.6027526855469
257.1807556152344
260.5614624023438
262.1825866699219
270.7511901855469
270.0363464355469
269.0676574707031
265.2021789550781
259.9762573242188
261.814208984375
260.0230712890625
264.3124389648438
260.2091369628906
263.6742248535156
258.3707580566406
260.3009033203125
257.6309509277344
260.3196411132812
251.9815979003906
256.0239868164062
255.3040466308594
257.759765625
259.8243408203125
264.1911926269531
268.3162536621094
267.6847229003906
267.5105590820312
269.6081848144531
273.9949951171875
270.6981506347656
260.0946350097656
270.8908996582031
267.0587463378906
272.56103515625
271.5570068359375
270.7258605957031
268.0540161132812
272.3673095703125
270.658447265625
271.998046875
265.5846862792969
268.5255737304688
272.9792785644531
273.2892761230469
271.1906433105469
264.2789611816406
270.0458068847656
269.45947265625
267.1700744628906
264.3625183105469
267.3718566894531
270.8352661132812
270.89013671875
273.3712768554688
269.4768676757812
270.3676147460938
267.8507385253906
272.2469482421875
263.570068359375
257.1923522949219
273.2799377441406
271.7278747558594
272.4596557617188
271.8591918945312
260.3222045898438
258.3391723632812
262.9378356933594
259.1267395019531
262.5256652832031
254.4659576416016
262.2815246582031
272.38916015625
272.2838439941406
264.0437316894531
255.4668121337891
269.5616760253906
270.1630249023438
270.1878662109375
270.5357360839844
272.9934692382812
271.1415100097656
260.3842468261719
271.7032775878906
272.5460510253906
271.5683288574219
258.4357604980469
271.128662109375
269.5330810546875
252.3702850341797
256.8595886230469
244.9595642089844
254.7006683349609
269.0287475585938
261.4034729003906
274.2858276367188
252.7127075195312
273.1609191894531
256.4917297363281
284.5121459960938
273.2068176269531
259.4110717773438
251.5056304931641
260.510498046875
258.7617797851562
257.9146728515625
262.2952270507812
259.5647888183594
258.1894836425781
257.5295104980469
257.6068725585938
264.5255432128906
264.6017456054688
265.2666625976562
266.4481506347656
260.1984558105469
260.421142578125
258.1651306152344
258.8484497070312
256.4011535644531
257.1713562011719
264.5973205566406
262.5508117675781
265.9794311523438
268.0299072265625
266.0588073730469
264.1439514160156
266.3874206542969
267.5709838867188
274.9075317382812
275.6957397460938
274.9876098632812
274.0097961425781
255.4568786621094
266.6592102050781
261.1760864257812
258.8720092773438
259.4367980957031
257.8985595703125
260.6134338378906
260.1383056640625
253.8784332275391
256.8309631347656
246.6369018554688
253.4348297119141
256.6978759765625
258.0714111328125
252.6595153808594
261.6053161621094
261.1018371582031
264.3815002441406
266.0482177734375
262.671875
285.3216247558594
287.8394165039062
283.3201599121094
284.1622924804688
281.1480407714844
280.1121520996094
273.1507873535156
283.6240234375
282.67578125
284.3084411621094
282.4976196289062
280.6020202636719
279.350830078125
281.0315856933594
278.6382751464844
280.9598999023438
271.1404418945312
273.6666564941406
269.9351501464844
273.8741149902344
274.3415222167969
274.1174926757812
274.8547973632812
274.0693054199219
273.7817687988281
272.3999328613281
273.1215515136719
268.9769592285156
266.2230224609375
273.1294250488281
263.3804321289062
273.2967529296875
267.9183959960938
268.0977478027344
268.8760070800781
265.3895568847656
269.7884521484375
269.3350830078125
261.2954711914062
268.4590454101562
267.504638671875
267.957763671875
270.553466796875
267.5322265625
263.9406127929688
263.8414001464844
268.0848693847656
265.4786682128906
266.3569946289062
267.2034912109375
265.9588928222656
266.6280517578125
265.0132751464844
265.2668151855469
270.6188354492188
272.0330200195312
269.5338439941406
265.4725036621094
266.2455444335938
267.2554016113281
264.7562561035156
262.0045776367188
260.0636596679688
258.2045593261719
272.9940185546875
271.78076171875
272.5976867675781
273.3107299804688
273.3885498046875
271.400634765625
269.7626037597656
275.5753173828125
269.9317016601562
271.0173950195312
269.4285888671875
270.2122802734375
270.7994995117188
272.7343444824219
267.8544006347656
270.5051879882812
273.1700439453125
268.6401672363281
268.9041442871094
267.3565368652344
271.1452026367188
269.5970764160156
271.2896728515625
272.7413635253906
267.8170776367188
265.7859802246094
271.8600158691406
265.5675964355469
271.6065979003906
268.4694519042969
265.3251953125
264.1951599121094
270.0693359375
268.9925231933594
265.8143005371094
270.6797790527344
269.4340209960938
270.3524475097656
269.9712219238281
270.2528686523438
262.7601623535156
263.4359130859375
263.986328125
266.21337890625
271.4356689453125
266.8426818847656
271.5736083984375
271.269775390625
257.3435363769531
262.9649353027344
260.8390197753906
260.6020812988281
263.6575012207031
265.3380432128906
270.0899047851562
267.6406860351562
255.3004302978516
261.0440368652344
244.8175048828125
253.7973785400391
261.6504516601562
261.6670532226562
263.787353515625
262.0806274414062
266.792236328125
268.0843200683594
264.4397583007812
266.5911560058594
267.8227233886719
268.1566162109375
266.3586730957031
267.5545959472656
267.7337341308594
266.202392578125
267.2571105957031
265.6769104003906
270.0281982421875
272.5892028808594
271.6570739746094
268.1767883300781
274.3278198242188
274.8220520019531
274.3591918945312
271.5289611816406
274.9477233886719
271.3884582519531
271.9133911132812
275.2226867675781
275.0714721679688
275.0770263671875
274.8724365234375
274.6589965820312
271.2257995605469
271.9945373535156
270.1793212890625
270.8120727539062
267.455322265625
264.0323791503906
272.7834167480469
265.3681945800781
274.8333435058594
274.4273071289062
275.3997192382812
274.3681335449219
269.5713806152344
271.2704467773438
270.0527954101562
268.3481750488281
262.3013000488281
266.5920104980469
269.5579833984375
261.1849975585938
274.5042724609375
268.1686401367188
274.9127502441406
271.3092651367188
265.5785522460938
259.1060791015625
270.7948303222656
271.7384948730469
274.7386169433594
274.4558410644531
274.771728515625
274.9349975585938
275.2576599121094
275.2146301269531
275.6356201171875
274.6240844726562